 Gaussian 09, Revision D.01,
 Gaussian 09:  ES64L-G09RevD.01 24-Apr-2013

 ----------------------------------------------------------------------
 #p rhf/sto-3g scf(conventional) Iop(3/33=6) Extralinks=L316 Noraff Sym
 m=Noint Iop(3/33=1) pop(full)
 ----------------------------------------------------------------------

 ----------------------------
 boron test to dump integrals
 ----------------------------
 Symbolic Z-matrix:
 Charge =  1 Multiplicity = 1

                         Standard orientation:
 ---------------------------------------------------------------------
 Center     Atomic      Atomic             Coordinates (Angstroms)
 Number     Number       Type             X           Y           Z
 ---------------------------------------------------------------------
      1          5           0        0.000000    0.000000    0.000000
 ---------------------------------------------------------------------

 SCF Done:  E(RHF) =  -23.9484703846     A.U. after    1 cycles

 The electronic state is 1-A1G.
 Alpha  occ. eigenvalues --   -7.98629  -0.84925
 Alpha virt. eigenvalues --   -0.20052  -0.20052  -0.20052

 Mulliken charges:
               1
     1  B    1.000000
 Sum of Mulliken charges =   1.00000

 Dipole moment (field-independent basis, Debye):
    X=              0.0000    Y=              0.0000    Z=              0.0000  Tot=              0.0000
 Quadrupole moment (field-independent basis, Debye-Ang):
   XX=             -3.2763   YY=             -3.2763   ZZ=             -3.2763
   XY=              0.0000   XZ=              0.0000   YZ=              0.0000

 Normal termination of Gaussian 09 at Mon Nov 25 16:02:19 2013.
