 Gaussian 09, Revision D.01,
 Gaussian 09:  ES64L-G09RevD.01 24-Apr-2013

 ----------------------------------------------------------------------
 #p rhf/STO-3G scf(conventional) Iop(3/33=6) Extralinks=L316 Noraff Sym
 m=Noint Iop(3/33=1) pop(full)
 ----------------------------------------------------------------------

 -------------------------
 be test to dump integrals
 -------------------------
 Symbolic Z-matrix:
 Charge =  0 Multiplicity = 1

                         Standard orientation:
 ---------------------------------------------------------------------
 Center     Atomic      Atomic             Coordinates (Angstroms)
 Number     Number       Type             X           Y           Z
 ---------------------------------------------------------------------
      1          4           0        0.000000    0.000000    0.000000
 ---------------------------------------------------------------------

 SCF Done:  E(RHF) =  -14.3518804007     A.U. after    1 cycles

 The electronic state is 1-A1G.
 Alpha  occ. eigenvalues --   -4.48399  -0.25404
 Alpha virt. eigenvalues --    0.22109   0.22109   0.22109

 Mulliken charges:
               1
     1  Be   0.000000
 Sum of Mulliken charges =   0.00000

 Dipole moment (field-independent basis, Debye):
    X=              0.0000    Y=              0.0000    Z=              0.0000  Tot=              0.0000
 Quadrupole moment (field-independent basis, Debye-Ang):
   XX=             -5.5441   YY=             -5.5441   ZZ=             -5.5441
   XY=              0.0000   XZ=              0.0000   YZ=              0.0000

 Normal termination of Gaussian 09 at Mon Nov 25 14:06:50 2013.
