 Gaussian 09, Revision D.01,
 Gaussian 09:  ES64L-G09RevD.01 24-Apr-2013

 ----------------------------------------------------------------------
 #p rhf/STO-3g scf(conventional) Iop(3/33=6) Extralinks=L316 Noraff Sym
 m=Noint Iop(3/33=1) pop(full)
 ----------------------------------------------------------------------

 -------------------------
 be test to dump integrals
 -------------------------
 Symbolic Z-matrix:
 Charge =  0 Multiplicity = 1

                         Standard orientation:
 ---------------------------------------------------------------------
 Center     Atomic      Atomic             Coordinates (Angstroms)
 Number     Number       Type             X           Y           Z
 ---------------------------------------------------------------------
      1          3           0        0.000000    0.000000    0.400000
      2          1           0        0.000000    0.000000   -1.200000
 ---------------------------------------------------------------------

 SCF Done:  E(RHF) =  -7.86186478362     A.U. after    8 cycles

 The electronic state is 1-SG.
 Alpha  occ. eigenvalues --   -2.34876  -0.28527
 Alpha virt. eigenvalues --    0.07822   0.16394   0.16394   0.54771

 Mulliken charges:
               1
     1  Li  -0.016029
     2  H    0.016029
 Sum of Mulliken charges =   0.00000

 Dipole moment (field-independent basis, Debye):
    X=              0.0000    Y=              0.0000    Z=              4.8588  Tot=              4.8588
 Quadrupole moment (field-independent basis, Debye-Ang):
   XX=             -5.2807   YY=             -5.2807   ZZ=             -4.9464
   XY=              0.0000   XZ=              0.0000   YZ=              0.0000

 Normal termination of Gaussian 09 at Mon Nov 25 15:51:14 2013.
